;
;	File 'topol_Protein_chain_M.itp' was generated
;	By user: colemanlm (22161)
;	On host: schooner2.oscer.ou.edu
;	At date: Thu May 28 11:25:43 2026
;
;	This is a include topology file
;
;	Created by:
;	                     :-) GROMACS - gmx pdb2gmx, 2022 (-:
;	
;	Executable:   /home/adchesney/software/gromacs/2022/mpi-omp/GCCcore/10.2.0/OpenMPI/4.0.5-GCC-10.2.0/bin/gmx_mpi
;	Data prefix:  /home/adchesney/software/gromacs/2022/mpi-omp/GCCcore/10.2.0/OpenMPI/4.0.5-GCC-10.2.0
;	Working dir:  /ourdisk/hpc/cbpc/colemanlm/dont_archive/TTR/KALGIV/topol
;	Command line:
;	  gmx_mpi pdb2gmx -f KALGIV_ttr_wt.pdb -o KALGIV_ttr_wt.gro -ter -water tip3p -p topol.top -i posre.itp -ignh
;	Force field was read from the standard GROMACS share directory.
;

[ moleculetype ]
; Name            nrexcl
Protein_chain_M     3

[ atoms ]
;   nr       type  resnr residue  atom   cgnr     charge       mass  typeB    chargeB      massB
; residue 648 VAL rtp VAL  q  0.0
     1        NH2    648    VAL      N      1      -0.96     14.007
     2          H    648    VAL    HT1      2       0.34      1.008
     3          H    648    VAL    HT2      3       0.34      1.008
     4        CT1    648    VAL     CA      4       0.19     12.011
     5         HB    648    VAL     HA      5       0.09      1.008
     6        CT1    648    VAL     CB      6      -0.09     12.011
     7         HA    648    VAL     HB      7       0.09      1.008
     8        CT3    648    VAL    CG1      8      -0.27     12.011
     9         HA    648    VAL   HG11      9       0.09      1.008
    10         HA    648    VAL   HG12     10       0.09      1.008
    11         HA    648    VAL   HG13     11       0.09      1.008
    12        CT3    648    VAL    CG2     12      -0.27     12.011
    13         HA    648    VAL   HG21     13       0.09      1.008
    14         HA    648    VAL   HG22     14       0.09      1.008
    15         HA    648    VAL   HG23     15       0.09      1.008
    16          C    648    VAL      C     16       0.51     12.011
    17          O    648    VAL      O     17      -0.51     15.999   ; qtot 0
; residue 649 ILE rtp ILE  q  0.0
    18        NH1    649    ILE      N     18      -0.47     14.007
    19          H    649    ILE     HN     19       0.31      1.008
    20        CT1    649    ILE     CA     20       0.07     12.011
    21         HB    649    ILE     HA     21       0.09      1.008
    22        CT1    649    ILE     CB     22      -0.09     12.011
    23         HA    649    ILE     HB     23       0.09      1.008
    24        CT3    649    ILE    CG2     24      -0.27     12.011
    25         HA    649    ILE   HG21     25       0.09      1.008
    26         HA    649    ILE   HG22     26       0.09      1.008
    27         HA    649    ILE   HG23     27       0.09      1.008
    28        CT2    649    ILE    CG1     28      -0.18     12.011
    29         HA    649    ILE   HG11     29       0.09      1.008
    30         HA    649    ILE   HG12     30       0.09      1.008
    31        CT3    649    ILE     CD     31      -0.27     12.011
    32         HA    649    ILE    HD1     32       0.09      1.008
    33         HA    649    ILE    HD2     33       0.09      1.008
    34         HA    649    ILE    HD3     34       0.09      1.008
    35          C    649    ILE      C     35       0.51     12.011
    36          O    649    ILE      O     36      -0.51     15.999   ; qtot 0
; residue 650 GLY rtp GLY  q  0.0
    37        NH1    650    GLY      N     37      -0.47     14.007
    38          H    650    GLY     HN     38       0.31      1.008
    39        CT2    650    GLY     CA     39      -0.02     12.011
    40         HB    650    GLY    HA1     40       0.09      1.008
    41         HB    650    GLY    HA2     41       0.09      1.008
    42          C    650    GLY      C     42       0.51     12.011
    43          O    650    GLY      O     43      -0.51     15.999   ; qtot 0
; residue 651 LEU rtp LEU  q  0.0
    44        NH1    651    LEU      N     44      -0.47     14.007
    45          H    651    LEU     HN     45       0.31      1.008
    46        CT1    651    LEU     CA     46       0.07     12.011
    47         HB    651    LEU     HA     47       0.09      1.008
    48        CT2    651    LEU     CB     48      -0.18     12.011
    49         HA    651    LEU    HB1     49       0.09      1.008
    50         HA    651    LEU    HB2     50       0.09      1.008
    51        CT1    651    LEU     CG     51      -0.09     12.011
    52         HA    651    LEU     HG     52       0.09      1.008
    53        CT3    651    LEU    CD1     53      -0.27     12.011
    54         HA    651    LEU   HD11     54       0.09      1.008
    55         HA    651    LEU   HD12     55       0.09      1.008
    56         HA    651    LEU   HD13     56       0.09      1.008
    57        CT3    651    LEU    CD2     57      -0.27     12.011
    58         HA    651    LEU   HD21     58       0.09      1.008
    59         HA    651    LEU   HD22     59       0.09      1.008
    60         HA    651    LEU   HD23     60       0.09      1.008
    61          C    651    LEU      C     61       0.51     12.011
    62          O    651    LEU      O     62      -0.51     15.999   ; qtot 0
; residue 652 ALA rtp ALA  q  0.0
    63        NH1    652    ALA      N     63      -0.47     14.007
    64          H    652    ALA     HN     64       0.31      1.008
    65        CT1    652    ALA     CA     65       0.07     12.011
    66         HB    652    ALA     HA     66       0.09      1.008
    67        CT3    652    ALA     CB     67      -0.27     12.011
    68         HA    652    ALA    HB1     68       0.09      1.008
    69         HA    652    ALA    HB2     69       0.09      1.008
    70         HA    652    ALA    HB3     70       0.09      1.008
    71          C    652    ALA      C     71       0.51     12.011
    72          O    652    ALA      O     72      -0.51     15.999   ; qtot 0
; residue 653 LYS rtp LYS  q +1.0
    73        NH1    653    LYS      N     73      -0.47     14.007
    74          H    653    LYS     HN     74       0.31      1.008
    75        CT1    653    LYS     CA     75       0.07     12.011
    76         HB    653    LYS     HA     76       0.09      1.008
    77        CT2    653    LYS     CB     77      -0.18     12.011
    78         HA    653    LYS    HB1     78       0.09      1.008
    79         HA    653    LYS    HB2     79       0.09      1.008
    80        CT2    653    LYS     CG     80      -0.18     12.011
    81         HA    653    LYS    HG1     81       0.09      1.008
    82         HA    653    LYS    HG2     82       0.09      1.008
    83        CT2    653    LYS     CD     83      -0.18     12.011
    84         HA    653    LYS    HD1     84       0.09      1.008
    85         HA    653    LYS    HD2     85       0.09      1.008
    86        CT2    653    LYS     CE     86       0.21     12.011
    87         HA    653    LYS    HE1     87       0.05      1.008
    88         HA    653    LYS    HE2     88       0.05      1.008
    89        NH3    653    LYS     NZ     89       -0.3     14.007
    90         HC    653    LYS    HZ1     90       0.33      1.008
    91         HC    653    LYS    HZ2     91       0.33      1.008
    92         HC    653    LYS    HZ3     92       0.33      1.008
    93         CC    653    LYS      C     93       0.55     12.011
    94        NH2    653    LYS     NT     94      -0.62    14.0027
    95          H    653    LYS    HT1     95        0.3      1.008
    96          H    653    LYS    HT2     96       0.32      1.008
    97          O    653    LYS      O     97      -0.55    15.9994   ; qtot 1

[ bonds ]
;  ai    aj funct            c0            c1            c2            c3
    1     2     1 
    1     3     1 
    1     4     1 
    4     5     1 
    4     6     1 
    4    16     1 
    6     7     1 
    6     8     1 
    6    12     1 
    8     9     1 
    8    10     1 
    8    11     1 
   12    13     1 
   12    14     1 
   12    15     1 
   16    17     1 
   16    18     1 
   18    19     1 
   18    20     1 
   20    21     1 
   20    22     1 
   20    35     1 
   22    23     1 
   22    24     1 
   22    28     1 
   24    25     1 
   24    26     1 
   24    27     1 
   28    29     1 
   28    30     1 
   28    31     1 
   31    32     1 
   31    33     1 
   31    34     1 
   35    36     1 
   35    37     1 
   37    38     1 
   37    39     1 
   39    40     1 
   39    41     1 
   39    42     1 
   42    43     1 
   42    44     1 
   44    45     1 
   44    46     1 
   46    47     1 
   46    48     1 
   46    61     1 
   48    49     1 
   48    50     1 
   48    51     1 
   51    52     1 
   51    53     1 
   51    57     1 
   53    54     1 
   53    55     1 
   53    56     1 
   57    58     1 
   57    59     1 
   57    60     1 
   61    62     1 
   61    63     1 
   63    64     1 
   63    65     1 
   65    66     1 
   65    67     1 
   65    71     1 
   67    68     1 
   67    69     1 
   67    70     1 
   71    72     1 
   71    73     1 
   73    74     1 
   73    75     1 
   75    76     1 
   75    77     1 
   75    93     1 
   77    78     1 
   77    79     1 
   77    80     1 
   80    81     1 
   80    82     1 
   80    83     1 
   83    84     1 
   83    85     1 
   83    86     1 
   86    87     1 
   86    88     1 
   86    89     1 
   89    90     1 
   89    91     1 
   89    92     1 
   93    94     1 
   93    97     1 
   94    95     1 
   94    96     1 

[ pairs ]
;  ai    aj funct            c0            c1            c2            c3
    1     7     1 
    1     8     1 
    1    12     1 
    1    17     1 
    1    18     1 
    2     5     1 
    2     6     1 
    2    16     1 
    3     5     1 
    3     6     1 
    3    16     1 
    4     9     1 
    4    10     1 
    4    11     1 
    4    13     1 
    4    14     1 
    4    15     1 
    4    19     1 
    4    20     1 
    5     7     1 
    5     8     1 
    5    12     1 
    5    17     1 
    5    18     1 
    6    17     1 
    6    18     1 
    7     9     1 
    7    10     1 
    7    11     1 
    7    13     1 
    7    14     1 
    7    15     1 
    7    16     1 
    8    13     1 
    8    14     1 
    8    15     1 
    8    16     1 
    9    12     1 
   10    12     1 
   11    12     1 
   12    16     1 
   16    21     1 
   16    22     1 
   16    35     1 
   17    19     1 
   17    20     1 
   18    23     1 
   18    24     1 
   18    28     1 
   18    36     1 
   18    37     1 
   19    21     1 
   19    22     1 
   19    35     1 
   20    25     1 
   20    26     1 
   20    27     1 
   20    29     1 
   20    30     1 
   20    31     1 
   20    38     1 
   20    39     1 
   21    23     1 
   21    24     1 
   21    28     1 
   21    36     1 
   21    37     1 
   22    32     1 
   22    33     1 
   22    34     1 
   22    36     1 
   22    37     1 
   23    25     1 
   23    26     1 
   23    27     1 
   23    29     1 
   23    30     1 
   23    31     1 
   23    35     1 
   24    29     1 
   24    30     1 
   24    31     1 
   24    35     1 
   25    28     1 
   26    28     1 
   27    28     1 
   28    35     1 
   29    32     1 
   29    33     1 
   29    34     1 
   30    32     1 
   30    33     1 
   30    34     1 
   35    40     1 
   35    41     1 
   35    42     1 
   36    38     1 
   36    39     1 
   37    43     1 
   37    44     1 
   38    40     1 
   38    41     1 
   38    42     1 
   39    45     1 
   39    46     1 
   40    43     1 
   40    44     1 
   41    43     1 
   41    44     1 
   42    47     1 
   42    48     1 
   42    61     1 
   43    45     1 
   43    46     1 
   44    49     1 
   44    50     1 
   44    51     1 
   44    62     1 
   44    63     1 
   45    47     1 
   45    48     1 
   45    61     1 
   46    52     1 
   46    53     1 
   46    57     1 
   46    64     1 
   46    65     1 
   47    49     1 
   47    50     1 
   47    51     1 
   47    62     1 
   47    63     1 
   48    54     1 
   48    55     1 
   48    56     1 
   48    58     1 
   48    59     1 
   48    60     1 
   48    62     1 
   48    63     1 
   49    52     1 
   49    53     1 
   49    57     1 
   49    61     1 
   50    52     1 
   50    53     1 
   50    57     1 
   50    61     1 
   51    61     1 
   52    54     1 
   52    55     1 
   52    56     1 
   52    58     1 
   52    59     1 
   52    60     1 
   53    58     1 
   53    59     1 
   53    60     1 
   54    57     1 
   55    57     1 
   56    57     1 
   61    66     1 
   61    67     1 
   61    71     1 
   62    64     1 
   62    65     1 
   63    68     1 
   63    69     1 
   63    70     1 
   63    72     1 
   63    73     1 
   64    66     1 
   64    67     1 
   64    71     1 
   65    74     1 
   65    75     1 
   66    68     1 
   66    69     1 
   66    70     1 
   66    72     1 
   66    73     1 
   67    72     1 
   67    73     1 
   68    71     1 
   69    71     1 
   70    71     1 
   71    76     1 
   71    77     1 
   71    93     1 
   72    74     1 
   72    75     1 
   73    78     1 
   73    79     1 
   73    80     1 
   73    94     1 
   73    97     1 
   74    76     1 
   74    77     1 
   74    93     1 
   75    81     1 
   75    82     1 
   75    83     1 
   75    95     1 
   75    96     1 
   76    78     1 
   76    79     1 
   76    80     1 
   76    94     1 
   76    97     1 
   77    84     1 
   77    85     1 
   77    86     1 
   77    94     1 
   77    97     1 
   78    81     1 
   78    82     1 
   78    83     1 
   78    93     1 
   79    81     1 
   79    82     1 
   79    83     1 
   79    93     1 
   80    87     1 
   80    88     1 
   80    89     1 
   80    93     1 
   81    84     1 
   81    85     1 
   81    86     1 
   82    84     1 
   82    85     1 
   82    86     1 
   83    90     1 
   83    91     1 
   83    92     1 
   84    87     1 
   84    88     1 
   84    89     1 
   85    87     1 
   85    88     1 
   85    89     1 
   87    90     1 
   87    91     1 
   87    92     1 
   88    90     1 
   88    91     1 
   88    92     1 
   95    97     1 
   96    97     1 

[ angles ]
;  ai    aj    ak funct            c0            c1            c2            c3
    2     1     3     5 
    2     1     4     5 
    3     1     4     5 
    1     4     5     5 
    1     4     6     5 
    1     4    16     5 
    5     4     6     5 
    5     4    16     5 
    6     4    16     5 
    4     6     7     5 
    4     6     8     5 
    4     6    12     5 
    7     6     8     5 
    7     6    12     5 
    8     6    12     5 
    6     8     9     5 
    6     8    10     5 
    6     8    11     5 
    9     8    10     5 
    9     8    11     5 
   10     8    11     5 
    6    12    13     5 
    6    12    14     5 
    6    12    15     5 
   13    12    14     5 
   13    12    15     5 
   14    12    15     5 
    4    16    17     5 
    4    16    18     5 
   17    16    18     5 
   16    18    19     5 
   16    18    20     5 
   19    18    20     5 
   18    20    21     5 
   18    20    22     5 
   18    20    35     5 
   21    20    22     5 
   21    20    35     5 
   22    20    35     5 
   20    22    23     5 
   20    22    24     5 
   20    22    28     5 
   23    22    24     5 
   23    22    28     5 
   24    22    28     5 
   22    24    25     5 
   22    24    26     5 
   22    24    27     5 
   25    24    26     5 
   25    24    27     5 
   26    24    27     5 
   22    28    29     5 
   22    28    30     5 
   22    28    31     5 
   29    28    30     5 
   29    28    31     5 
   30    28    31     5 
   28    31    32     5 
   28    31    33     5 
   28    31    34     5 
   32    31    33     5 
   32    31    34     5 
   33    31    34     5 
   20    35    36     5 
   20    35    37     5 
   36    35    37     5 
   35    37    38     5 
   35    37    39     5 
   38    37    39     5 
   37    39    40     5 
   37    39    41     5 
   37    39    42     5 
   40    39    41     5 
   40    39    42     5 
   41    39    42     5 
   39    42    43     5 
   39    42    44     5 
   43    42    44     5 
   42    44    45     5 
   42    44    46     5 
   45    44    46     5 
   44    46    47     5 
   44    46    48     5 
   44    46    61     5 
   47    46    48     5 
   47    46    61     5 
   48    46    61     5 
   46    48    49     5 
   46    48    50     5 
   46    48    51     5 
   49    48    50     5 
   49    48    51     5 
   50    48    51     5 
   48    51    52     5 
   48    51    53     5 
   48    51    57     5 
   52    51    53     5 
   52    51    57     5 
   53    51    57     5 
   51    53    54     5 
   51    53    55     5 
   51    53    56     5 
   54    53    55     5 
   54    53    56     5 
   55    53    56     5 
   51    57    58     5 
   51    57    59     5 
   51    57    60     5 
   58    57    59     5 
   58    57    60     5 
   59    57    60     5 
   46    61    62     5 
   46    61    63     5 
   62    61    63     5 
   61    63    64     5 
   61    63    65     5 
   64    63    65     5 
   63    65    66     5 
   63    65    67     5 
   63    65    71     5 
   66    65    67     5 
   66    65    71     5 
   67    65    71     5 
   65    67    68     5 
   65    67    69     5 
   65    67    70     5 
   68    67    69     5 
   68    67    70     5 
   69    67    70     5 
   65    71    72     5 
   65    71    73     5 
   72    71    73     5 
   71    73    74     5 
   71    73    75     5 
   74    73    75     5 
   73    75    76     5 
   73    75    77     5 
   73    75    93     5 
   76    75    77     5 
   76    75    93     5 
   77    75    93     5 
   75    77    78     5 
   75    77    79     5 
   75    77    80     5 
   78    77    79     5 
   78    77    80     5 
   79    77    80     5 
   77    80    81     5 
   77    80    82     5 
   77    80    83     5 
   81    80    82     5 
   81    80    83     5 
   82    80    83     5 
   80    83    84     5 
   80    83    85     5 
   80    83    86     5 
   84    83    85     5 
   84    83    86     5 
   85    83    86     5 
   83    86    87     5 
   83    86    88     5 
   83    86    89     5 
   87    86    88     5 
   87    86    89     5 
   88    86    89     5 
   86    89    90     5 
   86    89    91     5 
   86    89    92     5 
   90    89    91     5 
   90    89    92     5 
   91    89    92     5 
   75    93    94     5 
   75    93    97     5 
   94    93    97     5 
   93    94    95     5 
   93    94    96     5 
   95    94    96     5 

[ dihedrals ]
;  ai    aj    ak    al funct            c0            c1            c2            c3            c4            c5
    2     1     4     5     9 
    2     1     4     6     9 
    2     1     4    16     9 
    3     1     4     5     9 
    3     1     4     6     9 
    3     1     4    16     9 
    1     4     6     7     9 
    1     4     6     8     9 
    1     4     6    12     9 
    5     4     6     7     9 
    5     4     6     8     9 
    5     4     6    12     9 
   16     4     6     7     9 
   16     4     6     8     9 
   16     4     6    12     9 
    1     4    16    17     9 
    1     4    16    18     9 
    5     4    16    17     9 
    5     4    16    18     9 
    6     4    16    17     9 
    6     4    16    18     9 
    4     6     8     9     9 
    4     6     8    10     9 
    4     6     8    11     9 
    7     6     8     9     9 
    7     6     8    10     9 
    7     6     8    11     9 
   12     6     8     9     9 
   12     6     8    10     9 
   12     6     8    11     9 
    4     6    12    13     9 
    4     6    12    14     9 
    4     6    12    15     9 
    7     6    12    13     9 
    7     6    12    14     9 
    7     6    12    15     9 
    8     6    12    13     9 
    8     6    12    14     9 
    8     6    12    15     9 
    4    16    18    19     9 
    4    16    18    20     9 
   17    16    18    19     9 
   17    16    18    20     9 
   16    18    20    21     9 
   16    18    20    22     9 
   16    18    20    35     9 
   19    18    20    21     9 
   19    18    20    22     9 
   19    18    20    35     9 
   18    20    22    23     9 
   18    20    22    24     9 
   18    20    22    28     9 
   21    20    22    23     9 
   21    20    22    24     9 
   21    20    22    28     9 
   35    20    22    23     9 
   35    20    22    24     9 
   35    20    22    28     9 
   18    20    35    36     9 
   18    20    35    37     9 
   21    20    35    36     9 
   21    20    35    37     9 
   22    20    35    36     9 
   22    20    35    37     9 
   20    22    24    25     9 
   20    22    24    26     9 
   20    22    24    27     9 
   23    22    24    25     9 
   23    22    24    26     9 
   23    22    24    27     9 
   28    22    24    25     9 
   28    22    24    26     9 
   28    22    24    27     9 
   20    22    28    29     9 
   20    22    28    30     9 
   20    22    28    31     9 
   23    22    28    29     9 
   23    22    28    30     9 
   23    22    28    31     9 
   24    22    28    29     9 
   24    22    28    30     9 
   24    22    28    31     9 
   22    28    31    32     9 
   22    28    31    33     9 
   22    28    31    34     9 
   29    28    31    32     9 
   29    28    31    33     9 
   29    28    31    34     9 
   30    28    31    32     9 
   30    28    31    33     9 
   30    28    31    34     9 
   20    35    37    38     9 
   20    35    37    39     9 
   36    35    37    38     9 
   36    35    37    39     9 
   35    37    39    40     9 
   35    37    39    41     9 
   35    37    39    42     9 
   38    37    39    40     9 
   38    37    39    41     9 
   38    37    39    42     9 
   37    39    42    43     9 
   37    39    42    44     9 
   40    39    42    43     9 
   40    39    42    44     9 
   41    39    42    43     9 
   41    39    42    44     9 
   39    42    44    45     9 
   39    42    44    46     9 
   43    42    44    45     9 
   43    42    44    46     9 
   42    44    46    47     9 
   42    44    46    48     9 
   42    44    46    61     9 
   45    44    46    47     9 
   45    44    46    48     9 
   45    44    46    61     9 
   44    46    48    49     9 
   44    46    48    50     9 
   44    46    48    51     9 
   47    46    48    49     9 
   47    46    48    50     9 
   47    46    48    51     9 
   61    46    48    49     9 
   61    46    48    50     9 
   61    46    48    51     9 
   44    46    61    62     9 
   44    46    61    63     9 
   47    46    61    62     9 
   47    46    61    63     9 
   48    46    61    62     9 
   48    46    61    63     9 
   46    48    51    52     9 
   46    48    51    53     9 
   46    48    51    57     9 
   49    48    51    52     9 
   49    48    51    53     9 
   49    48    51    57     9 
   50    48    51    52     9 
   50    48    51    53     9 
   50    48    51    57     9 
   48    51    53    54     9 
   48    51    53    55     9 
   48    51    53    56     9 
   52    51    53    54     9 
   52    51    53    55     9 
   52    51    53    56     9 
   57    51    53    54     9 
   57    51    53    55     9 
   57    51    53    56     9 
   48    51    57    58     9 
   48    51    57    59     9 
   48    51    57    60     9 
   52    51    57    58     9 
   52    51    57    59     9 
   52    51    57    60     9 
   53    51    57    58     9 
   53    51    57    59     9 
   53    51    57    60     9 
   46    61    63    64     9 
   46    61    63    65     9 
   62    61    63    64     9 
   62    61    63    65     9 
   61    63    65    66     9 
   61    63    65    67     9 
   61    63    65    71     9 
   64    63    65    66     9 
   64    63    65    67     9 
   64    63    65    71     9 
   63    65    67    68     9 
   63    65    67    69     9 
   63    65    67    70     9 
   66    65    67    68     9 
   66    65    67    69     9 
   66    65    67    70     9 
   71    65    67    68     9 
   71    65    67    69     9 
   71    65    67    70     9 
   63    65    71    72     9 
   63    65    71    73     9 
   66    65    71    72     9 
   66    65    71    73     9 
   67    65    71    72     9 
   67    65    71    73     9 
   65    71    73    74     9 
   65    71    73    75     9 
   72    71    73    74     9 
   72    71    73    75     9 
   71    73    75    76     9 
   71    73    75    77     9 
   71    73    75    93     9 
   74    73    75    76     9 
   74    73    75    77     9 
   74    73    75    93     9 
   73    75    77    78     9 
   73    75    77    79     9 
   73    75    77    80     9 
   76    75    77    78     9 
   76    75    77    79     9 
   76    75    77    80     9 
   93    75    77    78     9 
   93    75    77    79     9 
   93    75    77    80     9 
   73    75    93    94     9 
   73    75    93    97     9 
   76    75    93    94     9 
   76    75    93    97     9 
   77    75    93    94     9 
   77    75    93    97     9 
   75    77    80    81     9 
   75    77    80    82     9 
   75    77    80    83     9 
   78    77    80    81     9 
   78    77    80    82     9 
   78    77    80    83     9 
   79    77    80    81     9 
   79    77    80    82     9 
   79    77    80    83     9 
   77    80    83    84     9 
   77    80    83    85     9 
   77    80    83    86     9 
   81    80    83    84     9 
   81    80    83    85     9 
   81    80    83    86     9 
   82    80    83    84     9 
   82    80    83    85     9 
   82    80    83    86     9 
   80    83    86    87     9 
   80    83    86    88     9 
   80    83    86    89     9 
   84    83    86    87     9 
   84    83    86    88     9 
   84    83    86    89     9 
   85    83    86    87     9 
   85    83    86    88     9 
   85    83    86    89     9 
   83    86    89    90     9 
   83    86    89    91     9 
   83    86    89    92     9 
   87    86    89    90     9 
   87    86    89    91     9 
   87    86    89    92     9 
   88    86    89    90     9 
   88    86    89    91     9 
   88    86    89    92     9 
   75    93    94    95     9 
   75    93    94    96     9 
   97    93    94    95     9 
   97    93    94    96     9 

[ dihedrals ]
;  ai    aj    ak    al funct            c0            c1            c2            c3
   16     4    18    17     2 
   18    16    20    19     2 
   35    20    37    36     2 
   37    35    39    38     2 
   42    39    44    43     2 
   44    42    46    45     2 
   61    46    63    62     2 
   63    61    65    64     2 
   71    65    73    72     2 
   73    71    75    74     2 
   93    75    94    97     2 
   93    94    75    97     2 
   94    93    96    95     2 
   94    93    95    96     2 

[ cmap ]
;  ai    aj    ak    al    am funct
   16    18    20    35    37     1 
   35    37    39    42    44     1 
   42    44    46    61    63     1 
   61    63    65    71    73     1 

; Include Position restraint file
#ifdef POSRES
#include "posre_Protein_chain_M.itp"
#endif

