;
;	File 'topol_Protein_chain_K.itp' was generated
;	By user: colemanlm (22161)
;	On host: schooner3.oscer.ou.edu
;	At date: Wed May 27 10:56:41 2026
;
;	This is a include topology file
;
;	Created by:
;	                     :-) GROMACS - gmx pdb2gmx, 2022 (-:
;	
;	Executable:   /home/adchesney/software/gromacs/2022/mpi-omp/GCCcore/10.2.0/OpenMPI/4.0.5-GCC-10.2.0/bin/gmx_mpi
;	Data prefix:  /home/adchesney/software/gromacs/2022/mpi-omp/GCCcore/10.2.0/OpenMPI/4.0.5-GCC-10.2.0
;	Working dir:  /ourdisk/hpc/cbpc/colemanlm/dont_archive/TTR/WKALLI/1st_run/sim
;	Command line:
;	  gmx_mpi pdb2gmx -f WKALLI_ttr_wt.pdb -o WKALLI_ttr_wt.gro -ter -water tip3p -p topol.top -i posre.itp -ignh
;	Force field was read from the standard GROMACS share directory.
;

[ moleculetype ]
; Name            nrexcl
Protein_chain_K     3

[ atoms ]
;   nr       type  resnr residue  atom   cgnr     charge       mass  typeB    chargeB      massB
; residue 636 ILE rtp ILE  q  0.0
     1        NH2    636    ILE      N      1      -0.96     14.007
     2          H    636    ILE    HT1      2       0.34      1.008
     3          H    636    ILE    HT2      3       0.34      1.008
     4        CT1    636    ILE     CA      4       0.19     12.011
     5         HB    636    ILE     HA      5       0.09      1.008
     6        CT1    636    ILE     CB      6      -0.09     12.011
     7         HA    636    ILE     HB      7       0.09      1.008
     8        CT3    636    ILE    CG2      8      -0.27     12.011
     9         HA    636    ILE   HG21      9       0.09      1.008
    10         HA    636    ILE   HG22     10       0.09      1.008
    11         HA    636    ILE   HG23     11       0.09      1.008
    12        CT2    636    ILE    CG1     12      -0.18     12.011
    13         HA    636    ILE   HG11     13       0.09      1.008
    14         HA    636    ILE   HG12     14       0.09      1.008
    15        CT3    636    ILE     CD     15      -0.27     12.011
    16         HA    636    ILE    HD1     16       0.09      1.008
    17         HA    636    ILE    HD2     17       0.09      1.008
    18         HA    636    ILE    HD3     18       0.09      1.008
    19          C    636    ILE      C     19       0.51     12.011
    20          O    636    ILE      O     20      -0.51     15.999   ; qtot 0
; residue 637 LEU rtp LEU  q  0.0
    21        NH1    637    LEU      N     21      -0.47     14.007
    22          H    637    LEU     HN     22       0.31      1.008
    23        CT1    637    LEU     CA     23       0.07     12.011
    24         HB    637    LEU     HA     24       0.09      1.008
    25        CT2    637    LEU     CB     25      -0.18     12.011
    26         HA    637    LEU    HB1     26       0.09      1.008
    27         HA    637    LEU    HB2     27       0.09      1.008
    28        CT1    637    LEU     CG     28      -0.09     12.011
    29         HA    637    LEU     HG     29       0.09      1.008
    30        CT3    637    LEU    CD1     30      -0.27     12.011
    31         HA    637    LEU   HD11     31       0.09      1.008
    32         HA    637    LEU   HD12     32       0.09      1.008
    33         HA    637    LEU   HD13     33       0.09      1.008
    34        CT3    637    LEU    CD2     34      -0.27     12.011
    35         HA    637    LEU   HD21     35       0.09      1.008
    36         HA    637    LEU   HD22     36       0.09      1.008
    37         HA    637    LEU   HD23     37       0.09      1.008
    38          C    637    LEU      C     38       0.51     12.011
    39          O    637    LEU      O     39      -0.51     15.999   ; qtot 0
; residue 638 LEU rtp LEU  q  0.0
    40        NH1    638    LEU      N     40      -0.47     14.007
    41          H    638    LEU     HN     41       0.31      1.008
    42        CT1    638    LEU     CA     42       0.07     12.011
    43         HB    638    LEU     HA     43       0.09      1.008
    44        CT2    638    LEU     CB     44      -0.18     12.011
    45         HA    638    LEU    HB1     45       0.09      1.008
    46         HA    638    LEU    HB2     46       0.09      1.008
    47        CT1    638    LEU     CG     47      -0.09     12.011
    48         HA    638    LEU     HG     48       0.09      1.008
    49        CT3    638    LEU    CD1     49      -0.27     12.011
    50         HA    638    LEU   HD11     50       0.09      1.008
    51         HA    638    LEU   HD12     51       0.09      1.008
    52         HA    638    LEU   HD13     52       0.09      1.008
    53        CT3    638    LEU    CD2     53      -0.27     12.011
    54         HA    638    LEU   HD21     54       0.09      1.008
    55         HA    638    LEU   HD22     55       0.09      1.008
    56         HA    638    LEU   HD23     56       0.09      1.008
    57          C    638    LEU      C     57       0.51     12.011
    58          O    638    LEU      O     58      -0.51     15.999   ; qtot 0
; residue 639 ALA rtp ALA  q  0.0
    59        NH1    639    ALA      N     59      -0.47     14.007
    60          H    639    ALA     HN     60       0.31      1.008
    61        CT1    639    ALA     CA     61       0.07     12.011
    62         HB    639    ALA     HA     62       0.09      1.008
    63        CT3    639    ALA     CB     63      -0.27     12.011
    64         HA    639    ALA    HB1     64       0.09      1.008
    65         HA    639    ALA    HB2     65       0.09      1.008
    66         HA    639    ALA    HB3     66       0.09      1.008
    67          C    639    ALA      C     67       0.51     12.011
    68          O    639    ALA      O     68      -0.51     15.999   ; qtot 0
; residue 640 LYS rtp LYS  q +1.0
    69        NH1    640    LYS      N     69      -0.47     14.007
    70          H    640    LYS     HN     70       0.31      1.008
    71        CT1    640    LYS     CA     71       0.07     12.011
    72         HB    640    LYS     HA     72       0.09      1.008
    73        CT2    640    LYS     CB     73      -0.18     12.011
    74         HA    640    LYS    HB1     74       0.09      1.008
    75         HA    640    LYS    HB2     75       0.09      1.008
    76        CT2    640    LYS     CG     76      -0.18     12.011
    77         HA    640    LYS    HG1     77       0.09      1.008
    78         HA    640    LYS    HG2     78       0.09      1.008
    79        CT2    640    LYS     CD     79      -0.18     12.011
    80         HA    640    LYS    HD1     80       0.09      1.008
    81         HA    640    LYS    HD2     81       0.09      1.008
    82        CT2    640    LYS     CE     82       0.21     12.011
    83         HA    640    LYS    HE1     83       0.05      1.008
    84         HA    640    LYS    HE2     84       0.05      1.008
    85        NH3    640    LYS     NZ     85       -0.3     14.007
    86         HC    640    LYS    HZ1     86       0.33      1.008
    87         HC    640    LYS    HZ2     87       0.33      1.008
    88         HC    640    LYS    HZ3     88       0.33      1.008
    89          C    640    LYS      C     89       0.51     12.011
    90          O    640    LYS      O     90      -0.51     15.999   ; qtot 1
; residue 641 TRP rtp TRP  q  0.0
    91        NH1    641    TRP      N     91      -0.47     14.007
    92          H    641    TRP     HN     92       0.31      1.008
    93        CT1    641    TRP     CA     93       0.07     12.011
    94         HB    641    TRP     HA     94       0.09      1.008
    95        CT2    641    TRP     CB     95      -0.18     12.011
    96         HA    641    TRP    HB1     96       0.09      1.008
    97         HA    641    TRP    HB2     97       0.09      1.008
    98         CY    641    TRP     CG     98      -0.03     12.011
    99         CA    641    TRP    CD1     99      0.035     12.011
   100         HP    641    TRP    HD1    100      0.115      1.008
   101         NY    641    TRP    NE1    101      -0.61     14.007
   102          H    641    TRP    HE1    102       0.38      1.008
   103        CPT    641    TRP    CE2    103       0.13     12.011
   104        CPT    641    TRP    CD2    104      -0.02     12.011
   105         CA    641    TRP    CE3    105     -0.115     12.011
   106         HP    641    TRP    HE3    106      0.115      1.008
   107         CA    641    TRP    CZ3    107     -0.115     12.011
   108         HP    641    TRP    HZ3    108      0.115      1.008
   109         CA    641    TRP    CZ2    109     -0.115     12.011
   110         HP    641    TRP    HZ2    110      0.115      1.008
   111         CA    641    TRP    CH2    111     -0.115     12.011
   112         HP    641    TRP    HH2    112      0.115      1.008
   113         CC    641    TRP      C    113       0.55     12.011
   114        NH2    641    TRP     NT    114      -0.62    14.0027
   115          H    641    TRP    HT1    115        0.3      1.008
   116          H    641    TRP    HT2    116       0.32      1.008
   117          O    641    TRP      O    117      -0.55    15.9994   ; qtot 1

[ bonds ]
;  ai    aj funct            c0            c1            c2            c3
    1     2     1 
    1     3     1 
    1     4     1 
    4     5     1 
    4     6     1 
    4    19     1 
    6     7     1 
    6     8     1 
    6    12     1 
    8     9     1 
    8    10     1 
    8    11     1 
   12    13     1 
   12    14     1 
   12    15     1 
   15    16     1 
   15    17     1 
   15    18     1 
   19    20     1 
   19    21     1 
   21    22     1 
   21    23     1 
   23    24     1 
   23    25     1 
   23    38     1 
   25    26     1 
   25    27     1 
   25    28     1 
   28    29     1 
   28    30     1 
   28    34     1 
   30    31     1 
   30    32     1 
   30    33     1 
   34    35     1 
   34    36     1 
   34    37     1 
   38    39     1 
   38    40     1 
   40    41     1 
   40    42     1 
   42    43     1 
   42    44     1 
   42    57     1 
   44    45     1 
   44    46     1 
   44    47     1 
   47    48     1 
   47    49     1 
   47    53     1 
   49    50     1 
   49    51     1 
   49    52     1 
   53    54     1 
   53    55     1 
   53    56     1 
   57    58     1 
   57    59     1 
   59    60     1 
   59    61     1 
   61    62     1 
   61    63     1 
   61    67     1 
   63    64     1 
   63    65     1 
   63    66     1 
   67    68     1 
   67    69     1 
   69    70     1 
   69    71     1 
   71    72     1 
   71    73     1 
   71    89     1 
   73    74     1 
   73    75     1 
   73    76     1 
   76    77     1 
   76    78     1 
   76    79     1 
   79    80     1 
   79    81     1 
   79    82     1 
   82    83     1 
   82    84     1 
   82    85     1 
   85    86     1 
   85    87     1 
   85    88     1 
   89    90     1 
   89    91     1 
   91    92     1 
   91    93     1 
   93    94     1 
   93    95     1 
   93   113     1 
   95    96     1 
   95    97     1 
   95    98     1 
   98    99     1 
   98   104     1 
   99   100     1 
   99   101     1 
  101   102     1 
  101   103     1 
  103   104     1 
  103   109     1 
  104   105     1 
  105   106     1 
  105   107     1 
  107   108     1 
  107   111     1 
  109   110     1 
  109   111     1 
  111   112     1 
  113   114     1 
  113   117     1 
  114   115     1 
  114   116     1 

[ pairs ]
;  ai    aj funct            c0            c1            c2            c3
    1     7     1 
    1     8     1 
    1    12     1 
    1    20     1 
    1    21     1 
    2     5     1 
    2     6     1 
    2    19     1 
    3     5     1 
    3     6     1 
    3    19     1 
    4     9     1 
    4    10     1 
    4    11     1 
    4    13     1 
    4    14     1 
    4    15     1 
    4    22     1 
    4    23     1 
    5     7     1 
    5     8     1 
    5    12     1 
    5    20     1 
    5    21     1 
    6    16     1 
    6    17     1 
    6    18     1 
    6    20     1 
    6    21     1 
    7     9     1 
    7    10     1 
    7    11     1 
    7    13     1 
    7    14     1 
    7    15     1 
    7    19     1 
    8    13     1 
    8    14     1 
    8    15     1 
    8    19     1 
    9    12     1 
   10    12     1 
   11    12     1 
   12    19     1 
   13    16     1 
   13    17     1 
   13    18     1 
   14    16     1 
   14    17     1 
   14    18     1 
   19    24     1 
   19    25     1 
   19    38     1 
   20    22     1 
   20    23     1 
   21    26     1 
   21    27     1 
   21    28     1 
   21    39     1 
   21    40     1 
   22    24     1 
   22    25     1 
   22    38     1 
   23    29     1 
   23    30     1 
   23    34     1 
   23    41     1 
   23    42     1 
   24    26     1 
   24    27     1 
   24    28     1 
   24    39     1 
   24    40     1 
   25    31     1 
   25    32     1 
   25    33     1 
   25    35     1 
   25    36     1 
   25    37     1 
   25    39     1 
   25    40     1 
   26    29     1 
   26    30     1 
   26    34     1 
   26    38     1 
   27    29     1 
   27    30     1 
   27    34     1 
   27    38     1 
   28    38     1 
   29    31     1 
   29    32     1 
   29    33     1 
   29    35     1 
   29    36     1 
   29    37     1 
   30    35     1 
   30    36     1 
   30    37     1 
   31    34     1 
   32    34     1 
   33    34     1 
   38    43     1 
   38    44     1 
   38    57     1 
   39    41     1 
   39    42     1 
   40    45     1 
   40    46     1 
   40    47     1 
   40    58     1 
   40    59     1 
   41    43     1 
   41    44     1 
   41    57     1 
   42    48     1 
   42    49     1 
   42    53     1 
   42    60     1 
   42    61     1 
   43    45     1 
   43    46     1 
   43    47     1 
   43    58     1 
   43    59     1 
   44    50     1 
   44    51     1 
   44    52     1 
   44    54     1 
   44    55     1 
   44    56     1 
   44    58     1 
   44    59     1 
   45    48     1 
   45    49     1 
   45    53     1 
   45    57     1 
   46    48     1 
   46    49     1 
   46    53     1 
   46    57     1 
   47    57     1 
   48    50     1 
   48    51     1 
   48    52     1 
   48    54     1 
   48    55     1 
   48    56     1 
   49    54     1 
   49    55     1 
   49    56     1 
   50    53     1 
   51    53     1 
   52    53     1 
   57    62     1 
   57    63     1 
   57    67     1 
   58    60     1 
   58    61     1 
   59    64     1 
   59    65     1 
   59    66     1 
   59    68     1 
   59    69     1 
   60    62     1 
   60    63     1 
   60    67     1 
   61    70     1 
   61    71     1 
   62    64     1 
   62    65     1 
   62    66     1 
   62    68     1 
   62    69     1 
   63    68     1 
   63    69     1 
   64    67     1 
   65    67     1 
   66    67     1 
   67    72     1 
   67    73     1 
   67    89     1 
   68    70     1 
   68    71     1 
   69    74     1 
   69    75     1 
   69    76     1 
   69    90     1 
   69    91     1 
   70    72     1 
   70    73     1 
   70    89     1 
   71    77     1 
   71    78     1 
   71    79     1 
   71    92     1 
   71    93     1 
   72    74     1 
   72    75     1 
   72    76     1 
   72    90     1 
   72    91     1 
   73    80     1 
   73    81     1 
   73    82     1 
   73    90     1 
   73    91     1 
   74    77     1 
   74    78     1 
   74    79     1 
   74    89     1 
   75    77     1 
   75    78     1 
   75    79     1 
   75    89     1 
   76    83     1 
   76    84     1 
   76    85     1 
   76    89     1 
   77    80     1 
   77    81     1 
   77    82     1 
   78    80     1 
   78    81     1 
   78    82     1 
   79    86     1 
   79    87     1 
   79    88     1 
   80    83     1 
   80    84     1 
   80    85     1 
   81    83     1 
   81    84     1 
   81    85     1 
   83    86     1 
   83    87     1 
   83    88     1 
   84    86     1 
   84    87     1 
   84    88     1 
   89    94     1 
   89    95     1 
   89   113     1 
   90    92     1 
   90    93     1 
   91    96     1 
   91    97     1 
   91    98     1 
   91   114     1 
   91   117     1 
   92    94     1 
   92    95     1 
   92   113     1 
   93    99     1 
   93   104     1 
   93   115     1 
   93   116     1 
   94    96     1 
   94    97     1 
   94    98     1 
   94   114     1 
   94   117     1 
   95   100     1 
   95   101     1 
   95   103     1 
   95   105     1 
   95   114     1 
   95   117     1 
   96    99     1 
   96   104     1 
   96   113     1 
   97    99     1 
   97   104     1 
   97   113     1 
   98   102     1 
   98   106     1 
   98   107     1 
   98   109     1 
   98   113     1 
   99   105     1 
   99   109     1 
  100   102     1 
  100   103     1 
  100   104     1 
  101   105     1 
  101   110     1 
  101   111     1 
  102   104     1 
  102   109     1 
  103   106     1 
  103   107     1 
  103   112     1 
  104   108     1 
  104   110     1 
  104   111     1 
  105   109     1 
  105   112     1 
  106   108     1 
  106   111     1 
  107   110     1 
  108   109     1 
  108   112     1 
  110   112     1 
  115   117     1 
  116   117     1 

[ angles ]
;  ai    aj    ak funct            c0            c1            c2            c3
    2     1     3     5 
    2     1     4     5 
    3     1     4     5 
    1     4     5     5 
    1     4     6     5 
    1     4    19     5 
    5     4     6     5 
    5     4    19     5 
    6     4    19     5 
    4     6     7     5 
    4     6     8     5 
    4     6    12     5 
    7     6     8     5 
    7     6    12     5 
    8     6    12     5 
    6     8     9     5 
    6     8    10     5 
    6     8    11     5 
    9     8    10     5 
    9     8    11     5 
   10     8    11     5 
    6    12    13     5 
    6    12    14     5 
    6    12    15     5 
   13    12    14     5 
   13    12    15     5 
   14    12    15     5 
   12    15    16     5 
   12    15    17     5 
   12    15    18     5 
   16    15    17     5 
   16    15    18     5 
   17    15    18     5 
    4    19    20     5 
    4    19    21     5 
   20    19    21     5 
   19    21    22     5 
   19    21    23     5 
   22    21    23     5 
   21    23    24     5 
   21    23    25     5 
   21    23    38     5 
   24    23    25     5 
   24    23    38     5 
   25    23    38     5 
   23    25    26     5 
   23    25    27     5 
   23    25    28     5 
   26    25    27     5 
   26    25    28     5 
   27    25    28     5 
   25    28    29     5 
   25    28    30     5 
   25    28    34     5 
   29    28    30     5 
   29    28    34     5 
   30    28    34     5 
   28    30    31     5 
   28    30    32     5 
   28    30    33     5 
   31    30    32     5 
   31    30    33     5 
   32    30    33     5 
   28    34    35     5 
   28    34    36     5 
   28    34    37     5 
   35    34    36     5 
   35    34    37     5 
   36    34    37     5 
   23    38    39     5 
   23    38    40     5 
   39    38    40     5 
   38    40    41     5 
   38    40    42     5 
   41    40    42     5 
   40    42    43     5 
   40    42    44     5 
   40    42    57     5 
   43    42    44     5 
   43    42    57     5 
   44    42    57     5 
   42    44    45     5 
   42    44    46     5 
   42    44    47     5 
   45    44    46     5 
   45    44    47     5 
   46    44    47     5 
   44    47    48     5 
   44    47    49     5 
   44    47    53     5 
   48    47    49     5 
   48    47    53     5 
   49    47    53     5 
   47    49    50     5 
   47    49    51     5 
   47    49    52     5 
   50    49    51     5 
   50    49    52     5 
   51    49    52     5 
   47    53    54     5 
   47    53    55     5 
   47    53    56     5 
   54    53    55     5 
   54    53    56     5 
   55    53    56     5 
   42    57    58     5 
   42    57    59     5 
   58    57    59     5 
   57    59    60     5 
   57    59    61     5 
   60    59    61     5 
   59    61    62     5 
   59    61    63     5 
   59    61    67     5 
   62    61    63     5 
   62    61    67     5 
   63    61    67     5 
   61    63    64     5 
   61    63    65     5 
   61    63    66     5 
   64    63    65     5 
   64    63    66     5 
   65    63    66     5 
   61    67    68     5 
   61    67    69     5 
   68    67    69     5 
   67    69    70     5 
   67    69    71     5 
   70    69    71     5 
   69    71    72     5 
   69    71    73     5 
   69    71    89     5 
   72    71    73     5 
   72    71    89     5 
   73    71    89     5 
   71    73    74     5 
   71    73    75     5 
   71    73    76     5 
   74    73    75     5 
   74    73    76     5 
   75    73    76     5 
   73    76    77     5 
   73    76    78     5 
   73    76    79     5 
   77    76    78     5 
   77    76    79     5 
   78    76    79     5 
   76    79    80     5 
   76    79    81     5 
   76    79    82     5 
   80    79    81     5 
   80    79    82     5 
   81    79    82     5 
   79    82    83     5 
   79    82    84     5 
   79    82    85     5 
   83    82    84     5 
   83    82    85     5 
   84    82    85     5 
   82    85    86     5 
   82    85    87     5 
   82    85    88     5 
   86    85    87     5 
   86    85    88     5 
   87    85    88     5 
   71    89    90     5 
   71    89    91     5 
   90    89    91     5 
   89    91    92     5 
   89    91    93     5 
   92    91    93     5 
   91    93    94     5 
   91    93    95     5 
   91    93   113     5 
   94    93    95     5 
   94    93   113     5 
   95    93   113     5 
   93    95    96     5 
   93    95    97     5 
   93    95    98     5 
   96    95    97     5 
   96    95    98     5 
   97    95    98     5 
   95    98    99     5 
   95    98   104     5 
   99    98   104     5 
   98    99   100     5 
   98    99   101     5 
  100    99   101     5 
   99   101   102     5 
   99   101   103     5 
  102   101   103     5 
  101   103   104     5 
  101   103   109     5 
  104   103   109     5 
   98   104   103     5 
   98   104   105     5 
  103   104   105     5 
  104   105   106     5 
  104   105   107     5 
  106   105   107     5 
  105   107   108     5 
  105   107   111     5 
  108   107   111     5 
  103   109   110     5 
  103   109   111     5 
  110   109   111     5 
  107   111   109     5 
  107   111   112     5 
  109   111   112     5 
   93   113   114     5 
   93   113   117     5 
  114   113   117     5 
  113   114   115     5 
  113   114   116     5 
  115   114   116     5 

[ dihedrals ]
;  ai    aj    ak    al funct            c0            c1            c2            c3            c4            c5
    2     1     4     5     9 
    2     1     4     6     9 
    2     1     4    19     9 
    3     1     4     5     9 
    3     1     4     6     9 
    3     1     4    19     9 
    1     4     6     7     9 
    1     4     6     8     9 
    1     4     6    12     9 
    5     4     6     7     9 
    5     4     6     8     9 
    5     4     6    12     9 
   19     4     6     7     9 
   19     4     6     8     9 
   19     4     6    12     9 
    1     4    19    20     9 
    1     4    19    21     9 
    5     4    19    20     9 
    5     4    19    21     9 
    6     4    19    20     9 
    6     4    19    21     9 
    4     6     8     9     9 
    4     6     8    10     9 
    4     6     8    11     9 
    7     6     8     9     9 
    7     6     8    10     9 
    7     6     8    11     9 
   12     6     8     9     9 
   12     6     8    10     9 
   12     6     8    11     9 
    4     6    12    13     9 
    4     6    12    14     9 
    4     6    12    15     9 
    7     6    12    13     9 
    7     6    12    14     9 
    7     6    12    15     9 
    8     6    12    13     9 
    8     6    12    14     9 
    8     6    12    15     9 
    6    12    15    16     9 
    6    12    15    17     9 
    6    12    15    18     9 
   13    12    15    16     9 
   13    12    15    17     9 
   13    12    15    18     9 
   14    12    15    16     9 
   14    12    15    17     9 
   14    12    15    18     9 
    4    19    21    22     9 
    4    19    21    23     9 
   20    19    21    22     9 
   20    19    21    23     9 
   19    21    23    24     9 
   19    21    23    25     9 
   19    21    23    38     9 
   22    21    23    24     9 
   22    21    23    25     9 
   22    21    23    38     9 
   21    23    25    26     9 
   21    23    25    27     9 
   21    23    25    28     9 
   24    23    25    26     9 
   24    23    25    27     9 
   24    23    25    28     9 
   38    23    25    26     9 
   38    23    25    27     9 
   38    23    25    28     9 
   21    23    38    39     9 
   21    23    38    40     9 
   24    23    38    39     9 
   24    23    38    40     9 
   25    23    38    39     9 
   25    23    38    40     9 
   23    25    28    29     9 
   23    25    28    30     9 
   23    25    28    34     9 
   26    25    28    29     9 
   26    25    28    30     9 
   26    25    28    34     9 
   27    25    28    29     9 
   27    25    28    30     9 
   27    25    28    34     9 
   25    28    30    31     9 
   25    28    30    32     9 
   25    28    30    33     9 
   29    28    30    31     9 
   29    28    30    32     9 
   29    28    30    33     9 
   34    28    30    31     9 
   34    28    30    32     9 
   34    28    30    33     9 
   25    28    34    35     9 
   25    28    34    36     9 
   25    28    34    37     9 
   29    28    34    35     9 
   29    28    34    36     9 
   29    28    34    37     9 
   30    28    34    35     9 
   30    28    34    36     9 
   30    28    34    37     9 
   23    38    40    41     9 
   23    38    40    42     9 
   39    38    40    41     9 
   39    38    40    42     9 
   38    40    42    43     9 
   38    40    42    44     9 
   38    40    42    57     9 
   41    40    42    43     9 
   41    40    42    44     9 
   41    40    42    57     9 
   40    42    44    45     9 
   40    42    44    46     9 
   40    42    44    47     9 
   43    42    44    45     9 
   43    42    44    46     9 
   43    42    44    47     9 
   57    42    44    45     9 
   57    42    44    46     9 
   57    42    44    47     9 
   40    42    57    58     9 
   40    42    57    59     9 
   43    42    57    58     9 
   43    42    57    59     9 
   44    42    57    58     9 
   44    42    57    59     9 
   42    44    47    48     9 
   42    44    47    49     9 
   42    44    47    53     9 
   45    44    47    48     9 
   45    44    47    49     9 
   45    44    47    53     9 
   46    44    47    48     9 
   46    44    47    49     9 
   46    44    47    53     9 
   44    47    49    50     9 
   44    47    49    51     9 
   44    47    49    52     9 
   48    47    49    50     9 
   48    47    49    51     9 
   48    47    49    52     9 
   53    47    49    50     9 
   53    47    49    51     9 
   53    47    49    52     9 
   44    47    53    54     9 
   44    47    53    55     9 
   44    47    53    56     9 
   48    47    53    54     9 
   48    47    53    55     9 
   48    47    53    56     9 
   49    47    53    54     9 
   49    47    53    55     9 
   49    47    53    56     9 
   42    57    59    60     9 
   42    57    59    61     9 
   58    57    59    60     9 
   58    57    59    61     9 
   57    59    61    62     9 
   57    59    61    63     9 
   57    59    61    67     9 
   60    59    61    62     9 
   60    59    61    63     9 
   60    59    61    67     9 
   59    61    63    64     9 
   59    61    63    65     9 
   59    61    63    66     9 
   62    61    63    64     9 
   62    61    63    65     9 
   62    61    63    66     9 
   67    61    63    64     9 
   67    61    63    65     9 
   67    61    63    66     9 
   59    61    67    68     9 
   59    61    67    69     9 
   62    61    67    68     9 
   62    61    67    69     9 
   63    61    67    68     9 
   63    61    67    69     9 
   61    67    69    70     9 
   61    67    69    71     9 
   68    67    69    70     9 
   68    67    69    71     9 
   67    69    71    72     9 
   67    69    71    73     9 
   67    69    71    89     9 
   70    69    71    72     9 
   70    69    71    73     9 
   70    69    71    89     9 
   69    71    73    74     9 
   69    71    73    75     9 
   69    71    73    76     9 
   72    71    73    74     9 
   72    71    73    75     9 
   72    71    73    76     9 
   89    71    73    74     9 
   89    71    73    75     9 
   89    71    73    76     9 
   69    71    89    90     9 
   69    71    89    91     9 
   72    71    89    90     9 
   72    71    89    91     9 
   73    71    89    90     9 
   73    71    89    91     9 
   71    73    76    77     9 
   71    73    76    78     9 
   71    73    76    79     9 
   74    73    76    77     9 
   74    73    76    78     9 
   74    73    76    79     9 
   75    73    76    77     9 
   75    73    76    78     9 
   75    73    76    79     9 
   73    76    79    80     9 
   73    76    79    81     9 
   73    76    79    82     9 
   77    76    79    80     9 
   77    76    79    81     9 
   77    76    79    82     9 
   78    76    79    80     9 
   78    76    79    81     9 
   78    76    79    82     9 
   76    79    82    83     9 
   76    79    82    84     9 
   76    79    82    85     9 
   80    79    82    83     9 
   80    79    82    84     9 
   80    79    82    85     9 
   81    79    82    83     9 
   81    79    82    84     9 
   81    79    82    85     9 
   79    82    85    86     9 
   79    82    85    87     9 
   79    82    85    88     9 
   83    82    85    86     9 
   83    82    85    87     9 
   83    82    85    88     9 
   84    82    85    86     9 
   84    82    85    87     9 
   84    82    85    88     9 
   71    89    91    92     9 
   71    89    91    93     9 
   90    89    91    92     9 
   90    89    91    93     9 
   89    91    93    94     9 
   89    91    93    95     9 
   89    91    93   113     9 
   92    91    93    94     9 
   92    91    93    95     9 
   92    91    93   113     9 
   91    93    95    96     9 
   91    93    95    97     9 
   91    93    95    98     9 
   94    93    95    96     9 
   94    93    95    97     9 
   94    93    95    98     9 
  113    93    95    96     9 
  113    93    95    97     9 
  113    93    95    98     9 
   91    93   113   114     9 
   91    93   113   117     9 
   94    93   113   114     9 
   94    93   113   117     9 
   95    93   113   114     9 
   95    93   113   117     9 
   93    95    98    99     9 
   93    95    98   104     9 
   96    95    98    99     9 
   96    95    98   104     9 
   97    95    98    99     9 
   97    95    98   104     9 
   95    98    99   100     9 
   95    98    99   101     9 
  104    98    99   100     9 
  104    98    99   101     9 
   95    98   104   103     9 
   95    98   104   105     9 
   99    98   104   103     9 
   99    98   104   105     9 
   98    99   101   102     9 
   98    99   101   103     9 
  100    99   101   102     9 
  100    99   101   103     9 
   99   101   103   104     9 
   99   101   103   109     9 
  102   101   103   104     9 
  102   101   103   109     9 
  101   103   104    98     9 
  101   103   104   105     9 
  109   103   104    98     9 
  109   103   104   105     9 
  101   103   109   110     9 
  101   103   109   111     9 
  104   103   109   110     9 
  104   103   109   111     9 
   98   104   105   106     9 
   98   104   105   107     9 
  103   104   105   106     9 
  103   104   105   107     9 
  104   105   107   108     9 
  104   105   107   111     9 
  106   105   107   108     9 
  106   105   107   111     9 
  105   107   111   109     9 
  105   107   111   112     9 
  108   107   111   109     9 
  108   107   111   112     9 
  103   109   111   107     9 
  103   109   111   112     9 
  110   109   111   107     9 
  110   109   111   112     9 
   93   113   114   115     9 
   93   113   114   116     9 
  117   113   114   115     9 
  117   113   114   116     9 

[ dihedrals ]
;  ai    aj    ak    al funct            c0            c1            c2            c3
   19     4    21    20     2 
   21    19    23    22     2 
   38    23    40    39     2 
   40    38    42    41     2 
   57    42    59    58     2 
   59    57    61    60     2 
   67    61    69    68     2 
   69    67    71    70     2 
   89    71    91    90     2 
   91    89    93    92     2 
  113    93   114   117     2 
  113   114    93   117     2 
  114   113   116   115     2 
  114   113   115   116     2 

[ cmap ]
;  ai    aj    ak    al    am funct
   19    21    23    38    40     1 
   38    40    42    57    59     1 
   57    59    61    67    69     1 
   67    69    71    89    91     1 

; Include Position restraint file
#ifdef POSRES
#include "posre_Protein_chain_K.itp"
#endif

