;
;	File 'topol_Protein_chain_O.itp' was generated
;	By user: colemanlm (22161)
;	On host: schooner1.oscer.ou.edu
;	At date: Mon Jun  1 12:01:44 2026
;
;	This is a include topology file
;
;	Created by:
;	                     :-) GROMACS - gmx pdb2gmx, 2022 (-:
;	
;	Executable:   /home/adchesney/software/gromacs/2022/mpi-omp/GCCcore/10.2.0/OpenMPI/4.0.5-GCC-10.2.0/bin/gmx_mpi
;	Data prefix:  /home/adchesney/software/gromacs/2022/mpi-omp/GCCcore/10.2.0/OpenMPI/4.0.5-GCC-10.2.0
;	Working dir:  /ourdisk/hpc/cbpc/colemanlm/dont_archive/TTR/WTFNLY/topol
;	Command line:
;	  gmx_mpi pdb2gmx -f WTFNLY_ttr_wt.pdb -o WTFNLY_ttr_wt.gro -ter -water tip3p -p topol.top -i posre.itp -ignh
;	Force field was read from the standard GROMACS share directory.
;

[ moleculetype ]
; Name            nrexcl
Protein_chain_O     3

[ atoms ]
;   nr       type  resnr residue  atom   cgnr     charge       mass  typeB    chargeB      massB
; residue 660 TYR rtp TYR  q  0.0
     1        NH2    660    TYR      N      1      -0.96     14.007
     2          H    660    TYR    HT1      2       0.34      1.008
     3          H    660    TYR    HT2      3       0.34      1.008
     4        CT1    660    TYR     CA      4       0.19     12.011
     5         HB    660    TYR     HA      5       0.09      1.008
     6        CT2    660    TYR     CB      6      -0.18     12.011
     7         HA    660    TYR    HB1      7       0.09      1.008
     8         HA    660    TYR    HB2      8       0.09      1.008
     9         CA    660    TYR     CG      9          0     12.011
    10         CA    660    TYR    CD1     10     -0.115     12.011
    11         HP    660    TYR    HD1     11      0.115      1.008
    12         CA    660    TYR    CE1     12     -0.115     12.011
    13         HP    660    TYR    HE1     13      0.115      1.008
    14         CA    660    TYR     CZ     14       0.11     12.011
    15        OH1    660    TYR     OH     15      -0.54     15.999
    16          H    660    TYR     HH     16       0.43      1.008
    17         CA    660    TYR    CD2     17     -0.115     12.011
    18         HP    660    TYR    HD2     18      0.115      1.008
    19         CA    660    TYR    CE2     19     -0.115     12.011
    20         HP    660    TYR    HE2     20      0.115      1.008
    21          C    660    TYR      C     21       0.51     12.011
    22          O    660    TYR      O     22      -0.51     15.999   ; qtot 0
; residue 661 LEU rtp LEU  q  0.0
    23        NH1    661    LEU      N     23      -0.47     14.007
    24          H    661    LEU     HN     24       0.31      1.008
    25        CT1    661    LEU     CA     25       0.07     12.011
    26         HB    661    LEU     HA     26       0.09      1.008
    27        CT2    661    LEU     CB     27      -0.18     12.011
    28         HA    661    LEU    HB1     28       0.09      1.008
    29         HA    661    LEU    HB2     29       0.09      1.008
    30        CT1    661    LEU     CG     30      -0.09     12.011
    31         HA    661    LEU     HG     31       0.09      1.008
    32        CT3    661    LEU    CD1     32      -0.27     12.011
    33         HA    661    LEU   HD11     33       0.09      1.008
    34         HA    661    LEU   HD12     34       0.09      1.008
    35         HA    661    LEU   HD13     35       0.09      1.008
    36        CT3    661    LEU    CD2     36      -0.27     12.011
    37         HA    661    LEU   HD21     37       0.09      1.008
    38         HA    661    LEU   HD22     38       0.09      1.008
    39         HA    661    LEU   HD23     39       0.09      1.008
    40          C    661    LEU      C     40       0.51     12.011
    41          O    661    LEU      O     41      -0.51     15.999   ; qtot 0
; residue 662 ASN rtp ASN  q  0.0
    42        NH1    662    ASN      N     42      -0.47     14.007
    43          H    662    ASN     HN     43       0.31      1.008
    44        CT1    662    ASN     CA     44       0.07     12.011
    45         HB    662    ASN     HA     45       0.09      1.008
    46        CT2    662    ASN     CB     46      -0.18     12.011
    47         HA    662    ASN    HB1     47       0.09      1.008
    48         HA    662    ASN    HB2     48       0.09      1.008
    49         CC    662    ASN     CG     49       0.55     12.011
    50          O    662    ASN    OD1     50      -0.55     15.999
    51        NH2    662    ASN    ND2     51      -0.62     14.007
    52          H    662    ASN   HD21     52       0.32      1.008
    53          H    662    ASN   HD22     53        0.3      1.008
    54          C    662    ASN      C     54       0.51     12.011
    55          O    662    ASN      O     55      -0.51     15.999   ; qtot 0
; residue 663 PHE rtp PHE  q  0.0
    56        NH1    663    PHE      N     56      -0.47     14.007
    57          H    663    PHE     HN     57       0.31      1.008
    58        CT1    663    PHE     CA     58       0.07     12.011
    59         HB    663    PHE     HA     59       0.09      1.008
    60        CT2    663    PHE     CB     60      -0.18     12.011
    61         HA    663    PHE    HB1     61       0.09      1.008
    62         HA    663    PHE    HB2     62       0.09      1.008
    63         CA    663    PHE     CG     63          0     12.011
    64         CA    663    PHE    CD1     64     -0.115     12.011
    65         HP    663    PHE    HD1     65      0.115      1.008
    66         CA    663    PHE    CE1     66     -0.115     12.011
    67         HP    663    PHE    HE1     67      0.115      1.008
    68         CA    663    PHE     CZ     68     -0.115     12.011
    69         HP    663    PHE     HZ     69      0.115      1.008
    70         CA    663    PHE    CD2     70     -0.115     12.011
    71         HP    663    PHE    HD2     71      0.115      1.008
    72         CA    663    PHE    CE2     72     -0.115     12.011
    73         HP    663    PHE    HE2     73      0.115      1.008
    74          C    663    PHE      C     74       0.51     12.011
    75          O    663    PHE      O     75      -0.51     15.999   ; qtot 0
; residue 664 THR rtp THR  q  0.0
    76        NH1    664    THR      N     76      -0.47     14.007
    77          H    664    THR     HN     77       0.31      1.008
    78        CT1    664    THR     CA     78       0.07     12.011
    79         HB    664    THR     HA     79       0.09      1.008
    80        CT1    664    THR     CB     80       0.14     12.011
    81         HA    664    THR     HB     81       0.09      1.008
    82        OH1    664    THR    OG1     82      -0.66     15.999
    83          H    664    THR    HG1     83       0.43      1.008
    84        CT3    664    THR    CG2     84      -0.27     12.011
    85         HA    664    THR   HG21     85       0.09      1.008
    86         HA    664    THR   HG22     86       0.09      1.008
    87         HA    664    THR   HG23     87       0.09      1.008
    88          C    664    THR      C     88       0.51     12.011
    89          O    664    THR      O     89      -0.51     15.999   ; qtot 0
; residue 665 TRP rtp TRP  q  0.0
    90        NH1    665    TRP      N     90      -0.47     14.007
    91          H    665    TRP     HN     91       0.31      1.008
    92        CT1    665    TRP     CA     92       0.07     12.011
    93         HB    665    TRP     HA     93       0.09      1.008
    94        CT2    665    TRP     CB     94      -0.18     12.011
    95         HA    665    TRP    HB1     95       0.09      1.008
    96         HA    665    TRP    HB2     96       0.09      1.008
    97         CY    665    TRP     CG     97      -0.03     12.011
    98         CA    665    TRP    CD1     98      0.035     12.011
    99         HP    665    TRP    HD1     99      0.115      1.008
   100         NY    665    TRP    NE1    100      -0.61     14.007
   101          H    665    TRP    HE1    101       0.38      1.008
   102        CPT    665    TRP    CE2    102       0.13     12.011
   103        CPT    665    TRP    CD2    103      -0.02     12.011
   104         CA    665    TRP    CE3    104     -0.115     12.011
   105         HP    665    TRP    HE3    105      0.115      1.008
   106         CA    665    TRP    CZ3    106     -0.115     12.011
   107         HP    665    TRP    HZ3    107      0.115      1.008
   108         CA    665    TRP    CZ2    108     -0.115     12.011
   109         HP    665    TRP    HZ2    109      0.115      1.008
   110         CA    665    TRP    CH2    110     -0.115     12.011
   111         HP    665    TRP    HH2    111      0.115      1.008
   112         CC    665    TRP      C    112       0.55     12.011
   113        NH2    665    TRP     NT    113      -0.62    14.0027
   114          H    665    TRP    HT1    114        0.3      1.008
   115          H    665    TRP    HT2    115       0.32      1.008
   116          O    665    TRP      O    116      -0.55    15.9994   ; qtot 0

[ bonds ]
;  ai    aj funct            c0            c1            c2            c3
    1     2     1 
    1     3     1 
    1     4     1 
    4     5     1 
    4     6     1 
    4    21     1 
    6     7     1 
    6     8     1 
    6     9     1 
    9    10     1 
    9    17     1 
   10    11     1 
   10    12     1 
   12    13     1 
   12    14     1 
   14    15     1 
   14    19     1 
   15    16     1 
   17    18     1 
   17    19     1 
   19    20     1 
   21    22     1 
   21    23     1 
   23    24     1 
   23    25     1 
   25    26     1 
   25    27     1 
   25    40     1 
   27    28     1 
   27    29     1 
   27    30     1 
   30    31     1 
   30    32     1 
   30    36     1 
   32    33     1 
   32    34     1 
   32    35     1 
   36    37     1 
   36    38     1 
   36    39     1 
   40    41     1 
   40    42     1 
   42    43     1 
   42    44     1 
   44    45     1 
   44    46     1 
   44    54     1 
   46    47     1 
   46    48     1 
   46    49     1 
   49    50     1 
   49    51     1 
   51    52     1 
   51    53     1 
   54    55     1 
   54    56     1 
   56    57     1 
   56    58     1 
   58    59     1 
   58    60     1 
   58    74     1 
   60    61     1 
   60    62     1 
   60    63     1 
   63    64     1 
   63    70     1 
   64    65     1 
   64    66     1 
   66    67     1 
   66    68     1 
   68    69     1 
   68    72     1 
   70    71     1 
   70    72     1 
   72    73     1 
   74    75     1 
   74    76     1 
   76    77     1 
   76    78     1 
   78    79     1 
   78    80     1 
   78    88     1 
   80    81     1 
   80    82     1 
   80    84     1 
   82    83     1 
   84    85     1 
   84    86     1 
   84    87     1 
   88    89     1 
   88    90     1 
   90    91     1 
   90    92     1 
   92    93     1 
   92    94     1 
   92   112     1 
   94    95     1 
   94    96     1 
   94    97     1 
   97    98     1 
   97   103     1 
   98    99     1 
   98   100     1 
  100   101     1 
  100   102     1 
  102   103     1 
  102   108     1 
  103   104     1 
  104   105     1 
  104   106     1 
  106   107     1 
  106   110     1 
  108   109     1 
  108   110     1 
  110   111     1 
  112   113     1 
  112   116     1 
  113   114     1 
  113   115     1 

[ pairs ]
;  ai    aj funct            c0            c1            c2            c3
    1     7     1 
    1     8     1 
    1     9     1 
    1    22     1 
    1    23     1 
    2     5     1 
    2     6     1 
    2    21     1 
    3     5     1 
    3     6     1 
    3    21     1 
    4    10     1 
    4    17     1 
    4    24     1 
    4    25     1 
    5     7     1 
    5     8     1 
    5     9     1 
    5    22     1 
    5    23     1 
    6    11     1 
    6    12     1 
    6    18     1 
    6    19     1 
    6    22     1 
    6    23     1 
    7    10     1 
    7    17     1 
    7    21     1 
    8    10     1 
    8    17     1 
    8    21     1 
    9    13     1 
    9    14     1 
    9    20     1 
    9    21     1 
   10    15     1 
   10    18     1 
   10    19     1 
   11    13     1 
   11    14     1 
   11    17     1 
   12    16     1 
   12    17     1 
   12    20     1 
   13    15     1 
   13    19     1 
   14    18     1 
   15    17     1 
   15    20     1 
   16    19     1 
   18    20     1 
   21    26     1 
   21    27     1 
   21    40     1 
   22    24     1 
   22    25     1 
   23    28     1 
   23    29     1 
   23    30     1 
   23    41     1 
   23    42     1 
   24    26     1 
   24    27     1 
   24    40     1 
   25    31     1 
   25    32     1 
   25    36     1 
   25    43     1 
   25    44     1 
   26    28     1 
   26    29     1 
   26    30     1 
   26    41     1 
   26    42     1 
   27    33     1 
   27    34     1 
   27    35     1 
   27    37     1 
   27    38     1 
   27    39     1 
   27    41     1 
   27    42     1 
   28    31     1 
   28    32     1 
   28    36     1 
   28    40     1 
   29    31     1 
   29    32     1 
   29    36     1 
   29    40     1 
   30    40     1 
   31    33     1 
   31    34     1 
   31    35     1 
   31    37     1 
   31    38     1 
   31    39     1 
   32    37     1 
   32    38     1 
   32    39     1 
   33    36     1 
   34    36     1 
   35    36     1 
   40    45     1 
   40    46     1 
   40    54     1 
   41    43     1 
   41    44     1 
   42    47     1 
   42    48     1 
   42    49     1 
   42    55     1 
   42    56     1 
   43    45     1 
   43    46     1 
   43    54     1 
   44    50     1 
   44    51     1 
   44    57     1 
   44    58     1 
   45    47     1 
   45    48     1 
   45    49     1 
   45    55     1 
   45    56     1 
   46    52     1 
   46    53     1 
   46    55     1 
   46    56     1 
   47    50     1 
   47    51     1 
   47    54     1 
   48    50     1 
   48    51     1 
   48    54     1 
   49    54     1 
   50    52     1 
   50    53     1 
   54    59     1 
   54    60     1 
   54    74     1 
   55    57     1 
   55    58     1 
   56    61     1 
   56    62     1 
   56    63     1 
   56    75     1 
   56    76     1 
   57    59     1 
   57    60     1 
   57    74     1 
   58    64     1 
   58    70     1 
   58    77     1 
   58    78     1 
   59    61     1 
   59    62     1 
   59    63     1 
   59    75     1 
   59    76     1 
   60    65     1 
   60    66     1 
   60    71     1 
   60    72     1 
   60    75     1 
   60    76     1 
   61    64     1 
   61    70     1 
   61    74     1 
   62    64     1 
   62    70     1 
   62    74     1 
   63    67     1 
   63    68     1 
   63    73     1 
   63    74     1 
   64    69     1 
   64    71     1 
   64    72     1 
   65    67     1 
   65    68     1 
   65    70     1 
   66    70     1 
   66    73     1 
   67    69     1 
   67    72     1 
   68    71     1 
   69    70     1 
   69    73     1 
   71    73     1 
   74    79     1 
   74    80     1 
   74    88     1 
   75    77     1 
   75    78     1 
   76    81     1 
   76    82     1 
   76    84     1 
   76    89     1 
   76    90     1 
   77    79     1 
   77    80     1 
   77    88     1 
   78    83     1 
   78    85     1 
   78    86     1 
   78    87     1 
   78    91     1 
   78    92     1 
   79    81     1 
   79    82     1 
   79    84     1 
   79    89     1 
   79    90     1 
   80    89     1 
   80    90     1 
   81    83     1 
   81    85     1 
   81    86     1 
   81    87     1 
   81    88     1 
   82    85     1 
   82    86     1 
   82    87     1 
   82    88     1 
   83    84     1 
   84    88     1 
   88    93     1 
   88    94     1 
   88   112     1 
   89    91     1 
   89    92     1 
   90    95     1 
   90    96     1 
   90    97     1 
   90   113     1 
   90   116     1 
   91    93     1 
   91    94     1 
   91   112     1 
   92    98     1 
   92   103     1 
   92   114     1 
   92   115     1 
   93    95     1 
   93    96     1 
   93    97     1 
   93   113     1 
   93   116     1 
   94    99     1 
   94   100     1 
   94   102     1 
   94   104     1 
   94   113     1 
   94   116     1 
   95    98     1 
   95   103     1 
   95   112     1 
   96    98     1 
   96   103     1 
   96   112     1 
   97   101     1 
   97   105     1 
   97   106     1 
   97   108     1 
   97   112     1 
   98   104     1 
   98   108     1 
   99   101     1 
   99   102     1 
   99   103     1 
  100   104     1 
  100   109     1 
  100   110     1 
  101   103     1 
  101   108     1 
  102   105     1 
  102   106     1 
  102   111     1 
  103   107     1 
  103   109     1 
  103   110     1 
  104   108     1 
  104   111     1 
  105   107     1 
  105   110     1 
  106   109     1 
  107   108     1 
  107   111     1 
  109   111     1 
  114   116     1 
  115   116     1 

[ angles ]
;  ai    aj    ak funct            c0            c1            c2            c3
    2     1     3     5 
    2     1     4     5 
    3     1     4     5 
    1     4     5     5 
    1     4     6     5 
    1     4    21     5 
    5     4     6     5 
    5     4    21     5 
    6     4    21     5 
    4     6     7     5 
    4     6     8     5 
    4     6     9     5 
    7     6     8     5 
    7     6     9     5 
    8     6     9     5 
    6     9    10     5 
    6     9    17     5 
   10     9    17     5 
    9    10    11     5 
    9    10    12     5 
   11    10    12     5 
   10    12    13     5 
   10    12    14     5 
   13    12    14     5 
   12    14    15     5 
   12    14    19     5 
   15    14    19     5 
   14    15    16     5 
    9    17    18     5 
    9    17    19     5 
   18    17    19     5 
   14    19    17     5 
   14    19    20     5 
   17    19    20     5 
    4    21    22     5 
    4    21    23     5 
   22    21    23     5 
   21    23    24     5 
   21    23    25     5 
   24    23    25     5 
   23    25    26     5 
   23    25    27     5 
   23    25    40     5 
   26    25    27     5 
   26    25    40     5 
   27    25    40     5 
   25    27    28     5 
   25    27    29     5 
   25    27    30     5 
   28    27    29     5 
   28    27    30     5 
   29    27    30     5 
   27    30    31     5 
   27    30    32     5 
   27    30    36     5 
   31    30    32     5 
   31    30    36     5 
   32    30    36     5 
   30    32    33     5 
   30    32    34     5 
   30    32    35     5 
   33    32    34     5 
   33    32    35     5 
   34    32    35     5 
   30    36    37     5 
   30    36    38     5 
   30    36    39     5 
   37    36    38     5 
   37    36    39     5 
   38    36    39     5 
   25    40    41     5 
   25    40    42     5 
   41    40    42     5 
   40    42    43     5 
   40    42    44     5 
   43    42    44     5 
   42    44    45     5 
   42    44    46     5 
   42    44    54     5 
   45    44    46     5 
   45    44    54     5 
   46    44    54     5 
   44    46    47     5 
   44    46    48     5 
   44    46    49     5 
   47    46    48     5 
   47    46    49     5 
   48    46    49     5 
   46    49    50     5 
   46    49    51     5 
   50    49    51     5 
   49    51    52     5 
   49    51    53     5 
   52    51    53     5 
   44    54    55     5 
   44    54    56     5 
   55    54    56     5 
   54    56    57     5 
   54    56    58     5 
   57    56    58     5 
   56    58    59     5 
   56    58    60     5 
   56    58    74     5 
   59    58    60     5 
   59    58    74     5 
   60    58    74     5 
   58    60    61     5 
   58    60    62     5 
   58    60    63     5 
   61    60    62     5 
   61    60    63     5 
   62    60    63     5 
   60    63    64     5 
   60    63    70     5 
   64    63    70     5 
   63    64    65     5 
   63    64    66     5 
   65    64    66     5 
   64    66    67     5 
   64    66    68     5 
   67    66    68     5 
   66    68    69     5 
   66    68    72     5 
   69    68    72     5 
   63    70    71     5 
   63    70    72     5 
   71    70    72     5 
   68    72    70     5 
   68    72    73     5 
   70    72    73     5 
   58    74    75     5 
   58    74    76     5 
   75    74    76     5 
   74    76    77     5 
   74    76    78     5 
   77    76    78     5 
   76    78    79     5 
   76    78    80     5 
   76    78    88     5 
   79    78    80     5 
   79    78    88     5 
   80    78    88     5 
   78    80    81     5 
   78    80    82     5 
   78    80    84     5 
   81    80    82     5 
   81    80    84     5 
   82    80    84     5 
   80    82    83     5 
   80    84    85     5 
   80    84    86     5 
   80    84    87     5 
   85    84    86     5 
   85    84    87     5 
   86    84    87     5 
   78    88    89     5 
   78    88    90     5 
   89    88    90     5 
   88    90    91     5 
   88    90    92     5 
   91    90    92     5 
   90    92    93     5 
   90    92    94     5 
   90    92   112     5 
   93    92    94     5 
   93    92   112     5 
   94    92   112     5 
   92    94    95     5 
   92    94    96     5 
   92    94    97     5 
   95    94    96     5 
   95    94    97     5 
   96    94    97     5 
   94    97    98     5 
   94    97   103     5 
   98    97   103     5 
   97    98    99     5 
   97    98   100     5 
   99    98   100     5 
   98   100   101     5 
   98   100   102     5 
  101   100   102     5 
  100   102   103     5 
  100   102   108     5 
  103   102   108     5 
   97   103   102     5 
   97   103   104     5 
  102   103   104     5 
  103   104   105     5 
  103   104   106     5 
  105   104   106     5 
  104   106   107     5 
  104   106   110     5 
  107   106   110     5 
  102   108   109     5 
  102   108   110     5 
  109   108   110     5 
  106   110   108     5 
  106   110   111     5 
  108   110   111     5 
   92   112   113     5 
   92   112   116     5 
  113   112   116     5 
  112   113   114     5 
  112   113   115     5 
  114   113   115     5 

[ dihedrals ]
;  ai    aj    ak    al funct            c0            c1            c2            c3            c4            c5
    2     1     4     5     9 
    2     1     4     6     9 
    2     1     4    21     9 
    3     1     4     5     9 
    3     1     4     6     9 
    3     1     4    21     9 
    1     4     6     7     9 
    1     4     6     8     9 
    1     4     6     9     9 
    5     4     6     7     9 
    5     4     6     8     9 
    5     4     6     9     9 
   21     4     6     7     9 
   21     4     6     8     9 
   21     4     6     9     9 
    1     4    21    22     9 
    1     4    21    23     9 
    5     4    21    22     9 
    5     4    21    23     9 
    6     4    21    22     9 
    6     4    21    23     9 
    4     6     9    10     9 
    4     6     9    17     9 
    7     6     9    10     9 
    7     6     9    17     9 
    8     6     9    10     9 
    8     6     9    17     9 
    6     9    10    11     9 
    6     9    10    12     9 
   17     9    10    11     9 
   17     9    10    12     9 
    6     9    17    18     9 
    6     9    17    19     9 
   10     9    17    18     9 
   10     9    17    19     9 
    9    10    12    13     9 
    9    10    12    14     9 
   11    10    12    13     9 
   11    10    12    14     9 
   10    12    14    15     9 
   10    12    14    19     9 
   13    12    14    15     9 
   13    12    14    19     9 
   12    14    15    16     9 
   19    14    15    16     9 
   12    14    19    17     9 
   12    14    19    20     9 
   15    14    19    17     9 
   15    14    19    20     9 
    9    17    19    14     9 
    9    17    19    20     9 
   18    17    19    14     9 
   18    17    19    20     9 
    4    21    23    24     9 
    4    21    23    25     9 
   22    21    23    24     9 
   22    21    23    25     9 
   21    23    25    26     9 
   21    23    25    27     9 
   21    23    25    40     9 
   24    23    25    26     9 
   24    23    25    27     9 
   24    23    25    40     9 
   23    25    27    28     9 
   23    25    27    29     9 
   23    25    27    30     9 
   26    25    27    28     9 
   26    25    27    29     9 
   26    25    27    30     9 
   40    25    27    28     9 
   40    25    27    29     9 
   40    25    27    30     9 
   23    25    40    41     9 
   23    25    40    42     9 
   26    25    40    41     9 
   26    25    40    42     9 
   27    25    40    41     9 
   27    25    40    42     9 
   25    27    30    31     9 
   25    27    30    32     9 
   25    27    30    36     9 
   28    27    30    31     9 
   28    27    30    32     9 
   28    27    30    36     9 
   29    27    30    31     9 
   29    27    30    32     9 
   29    27    30    36     9 
   27    30    32    33     9 
   27    30    32    34     9 
   27    30    32    35     9 
   31    30    32    33     9 
   31    30    32    34     9 
   31    30    32    35     9 
   36    30    32    33     9 
   36    30    32    34     9 
   36    30    32    35     9 
   27    30    36    37     9 
   27    30    36    38     9 
   27    30    36    39     9 
   31    30    36    37     9 
   31    30    36    38     9 
   31    30    36    39     9 
   32    30    36    37     9 
   32    30    36    38     9 
   32    30    36    39     9 
   25    40    42    43     9 
   25    40    42    44     9 
   41    40    42    43     9 
   41    40    42    44     9 
   40    42    44    45     9 
   40    42    44    46     9 
   40    42    44    54     9 
   43    42    44    45     9 
   43    42    44    46     9 
   43    42    44    54     9 
   42    44    46    47     9 
   42    44    46    48     9 
   42    44    46    49     9 
   45    44    46    47     9 
   45    44    46    48     9 
   45    44    46    49     9 
   54    44    46    47     9 
   54    44    46    48     9 
   54    44    46    49     9 
   42    44    54    55     9 
   42    44    54    56     9 
   45    44    54    55     9 
   45    44    54    56     9 
   46    44    54    55     9 
   46    44    54    56     9 
   44    46    49    50     9 
   44    46    49    51     9 
   47    46    49    50     9 
   47    46    49    51     9 
   48    46    49    50     9 
   48    46    49    51     9 
   46    49    51    52     9 
   46    49    51    53     9 
   50    49    51    52     9 
   50    49    51    53     9 
   44    54    56    57     9 
   44    54    56    58     9 
   55    54    56    57     9 
   55    54    56    58     9 
   54    56    58    59     9 
   54    56    58    60     9 
   54    56    58    74     9 
   57    56    58    59     9 
   57    56    58    60     9 
   57    56    58    74     9 
   56    58    60    61     9 
   56    58    60    62     9 
   56    58    60    63     9 
   59    58    60    61     9 
   59    58    60    62     9 
   59    58    60    63     9 
   74    58    60    61     9 
   74    58    60    62     9 
   74    58    60    63     9 
   56    58    74    75     9 
   56    58    74    76     9 
   59    58    74    75     9 
   59    58    74    76     9 
   60    58    74    75     9 
   60    58    74    76     9 
   58    60    63    64     9 
   58    60    63    70     9 
   61    60    63    64     9 
   61    60    63    70     9 
   62    60    63    64     9 
   62    60    63    70     9 
   60    63    64    65     9 
   60    63    64    66     9 
   70    63    64    65     9 
   70    63    64    66     9 
   60    63    70    71     9 
   60    63    70    72     9 
   64    63    70    71     9 
   64    63    70    72     9 
   63    64    66    67     9 
   63    64    66    68     9 
   65    64    66    67     9 
   65    64    66    68     9 
   64    66    68    69     9 
   64    66    68    72     9 
   67    66    68    69     9 
   67    66    68    72     9 
   66    68    72    70     9 
   66    68    72    73     9 
   69    68    72    70     9 
   69    68    72    73     9 
   63    70    72    68     9 
   63    70    72    73     9 
   71    70    72    68     9 
   71    70    72    73     9 
   58    74    76    77     9 
   58    74    76    78     9 
   75    74    76    77     9 
   75    74    76    78     9 
   74    76    78    79     9 
   74    76    78    80     9 
   74    76    78    88     9 
   77    76    78    79     9 
   77    76    78    80     9 
   77    76    78    88     9 
   76    78    80    81     9 
   76    78    80    82     9 
   76    78    80    84     9 
   79    78    80    81     9 
   79    78    80    82     9 
   79    78    80    84     9 
   88    78    80    81     9 
   88    78    80    82     9 
   88    78    80    84     9 
   76    78    88    89     9 
   76    78    88    90     9 
   79    78    88    89     9 
   79    78    88    90     9 
   80    78    88    89     9 
   80    78    88    90     9 
   78    80    82    83     9 
   81    80    82    83     9 
   84    80    82    83     9 
   78    80    84    85     9 
   78    80    84    86     9 
   78    80    84    87     9 
   81    80    84    85     9 
   81    80    84    86     9 
   81    80    84    87     9 
   82    80    84    85     9 
   82    80    84    86     9 
   82    80    84    87     9 
   78    88    90    91     9 
   78    88    90    92     9 
   89    88    90    91     9 
   89    88    90    92     9 
   88    90    92    93     9 
   88    90    92    94     9 
   88    90    92   112     9 
   91    90    92    93     9 
   91    90    92    94     9 
   91    90    92   112     9 
   90    92    94    95     9 
   90    92    94    96     9 
   90    92    94    97     9 
   93    92    94    95     9 
   93    92    94    96     9 
   93    92    94    97     9 
  112    92    94    95     9 
  112    92    94    96     9 
  112    92    94    97     9 
   90    92   112   113     9 
   90    92   112   116     9 
   93    92   112   113     9 
   93    92   112   116     9 
   94    92   112   113     9 
   94    92   112   116     9 
   92    94    97    98     9 
   92    94    97   103     9 
   95    94    97    98     9 
   95    94    97   103     9 
   96    94    97    98     9 
   96    94    97   103     9 
   94    97    98    99     9 
   94    97    98   100     9 
  103    97    98    99     9 
  103    97    98   100     9 
   94    97   103   102     9 
   94    97   103   104     9 
   98    97   103   102     9 
   98    97   103   104     9 
   97    98   100   101     9 
   97    98   100   102     9 
   99    98   100   101     9 
   99    98   100   102     9 
   98   100   102   103     9 
   98   100   102   108     9 
  101   100   102   103     9 
  101   100   102   108     9 
  100   102   103    97     9 
  100   102   103   104     9 
  108   102   103    97     9 
  108   102   103   104     9 
  100   102   108   109     9 
  100   102   108   110     9 
  103   102   108   109     9 
  103   102   108   110     9 
   97   103   104   105     9 
   97   103   104   106     9 
  102   103   104   105     9 
  102   103   104   106     9 
  103   104   106   107     9 
  103   104   106   110     9 
  105   104   106   107     9 
  105   104   106   110     9 
  104   106   110   108     9 
  104   106   110   111     9 
  107   106   110   108     9 
  107   106   110   111     9 
  102   108   110   106     9 
  102   108   110   111     9 
  109   108   110   106     9 
  109   108   110   111     9 
   92   112   113   114     9 
   92   112   113   115     9 
  116   112   113   114     9 
  116   112   113   115     9 

[ dihedrals ]
;  ai    aj    ak    al funct            c0            c1            c2            c3
   21     4    23    22     2 
   23    21    25    24     2 
   40    25    42    41     2 
   42    40    44    43     2 
   49    46    51    50     2 
   49    51    46    50     2 
   51    49    53    52     2 
   51    49    52    53     2 
   54    44    56    55     2 
   56    54    58    57     2 
   74    58    76    75     2 
   76    74    78    77     2 
   88    78    90    89     2 
   90    88    92    91     2 
  112    92   113   116     2 
  112   113    92   116     2 
  113   112   115   114     2 
  113   112   114   115     2 

[ cmap ]
;  ai    aj    ak    al    am funct
   21    23    25    40    42     1 
   40    42    44    54    56     1 
   54    56    58    74    76     1 
   74    76    78    88    90     1 

; Include Position restraint file
#ifdef POSRES
#include "posre_Protein_chain_O.itp"
#endif

