;
;	File 'topol.top' was generated
;	By user: colemanlm (22161)
;	On host: schooner2.oscer.ou.edu
;	At date: Sat Nov 15 14:57:22 2025
;
;	This is a standalone topology file
;
;	Created by:
;	                     :-) GROMACS - gmx pdb2gmx, 2022 (-:
;	
;	Executable:   /home/adchesney/software/gromacs/2022/mpi-omp/GCCcore/10.2.0/OpenMPI/4.0.5-GCC-10.2.0/bin/gmx_mpi
;	Data prefix:  /home/adchesney/software/gromacs/2022/mpi-omp/GCCcore/10.2.0/OpenMPI/4.0.5-GCC-10.2.0
;	Working dir:  /scratch/colemanlm/TTR/control/1st_run
;	Command line:
;	  gmx_mpi pdb2gmx -f control_ttr_wt.pdb -o control_ttr_wt.gro -ter -water tip3p -p topol.top -i porse.itp -ignh
;	Force field data was read from:
;	/home/colemanlm/
;
;	Note:
;	This might be a non-standard force field location. When you use this topology, the
;	force field must either be present in the current directory, or the location
;	specified in the GMXLIB path variable or with the 'include' mdp file option.
;

; Include forcefield parameters
#include "charmm36-jul2022.ff/forcefield.itp"

; Include chain topologies
#include "topol_Protein_chain_A.itp"
#include "topol_Protein_chain_B.itp"
#include "topol_Protein_chain_C.itp"
#include "topol_Protein_chain_D.itp"
#include "topol_Protein_chain_E.itp"
#include "topol_Protein_chain_F.itp"
#include "topol_Protein_chain_G.itp"
#include "topol_Protein_chain_H.itp"
#include "topol_Protein_chain_I.itp"
#include "topol_Protein_chain_J.itp"

; Include water topology
#include "charmm36-jul2022.ff/tip3p.itp"

#ifdef POSRES_WATER
; Position restraint for each water oxygen
[ position_restraints ]
;  i funct       fcx        fcy        fcz
   1    1       1000       1000       1000
#endif

; Include topology for ions
#include "charmm36-jul2022.ff/ions.itp"

[ system ]
; Name
Protein in water

[ molecules ]
; Compound        #mols
Protein_chain_A     1
Protein_chain_B     1
Protein_chain_C     1
Protein_chain_D     1
Protein_chain_E     1
Protein_chain_F     1
Protein_chain_G     1
Protein_chain_H     1
Protein_chain_I     1
Protein_chain_J     1
SOL         55927
NA               167
CL               162
